#LAMMPS initial data file

#各種結合の設定
9 atoms
3 atom types

#cell initial size
-5 5 xlo xhi
-5 5 ylo yhi
-5 5 zlo zhi

Masses

1 1.0 #H atom
2 12.0 #C atom
3 16.0 #O atom
 
Atoms#参考にしたサイト→PDB(https://www.rcsb.org/ligand/EOH)

1 1 2 0.0 0.0070   -0.5690    0.0000
2 1 2 0.0  -1.2850    0.2500   -0.0000
3 1 3 0.0 1.1300    0.3150   -0.0000
4 1 1 0.0 0.0390   -1.1970    0.8900
5 1 1 0.0  0.0390   -1.1970   -0.8900
6 1 1 0.0 -1.3170    0.8780    0.8900
7 1 1 0.0  -1.3170    0.8780   -0.8900
8 1 1 0.0   -2.1420   -0.4240    0.0000
9 1 1 0.0 1.9860   -0.1370    0.0000